Created from lmp.config
320          atoms
2            atom types
  0.000000000000  12.378617760000 xlo xhi
  0.000000000000  10.720197830000 ylo yhi
  0.000000000000  25.309100000000 zlo zhi
 -6.189308211200   0.000000000000   0.000000000000 xy xz yz

Masses

1             28.086000000000 # 14
2             12.011000000000 # 6

Atoms # atomic

1            1              0.000000000000   0.000000000000   5.061237890700
2            1              0.000000000000   0.000000000000  10.124677673100
3            1              0.000000000000   0.000000000000  15.186624218600
4            1              0.000000000000   0.000000000000  20.249355346200
5            1              0.000000111460   1.786699638337   2.533314364500
6            1              0.000000111460   1.786699638337  12.654550000000
7            1              0.000000111460   1.786699638337  22.777785054400
8            1              1.547327275740   0.893349819163   0.000000000000
9            1              1.547327275740   0.893349819163   7.593236182000
10           1              1.547327275740   0.893349819163  17.716850872900
11           1             -1.547327052800   2.680049457500   5.061237890700
12           1             -1.547327052800   2.680049457500  10.124677673100
13           1             -1.547327052800   2.680049457500  15.186624218600
14           1             -1.547327052800   2.680049457500  20.249355346200
15           1             -1.547326941340   4.466749095837   2.533314364500
16           1             -1.547326941340   4.466749095837  12.654550000000
17           1             -1.547326941340   4.466749095837  22.777785054400
18           1              0.000000222940   3.573399276663   0.000000000000
19           1              0.000000222940   3.573399276663   7.593236182000
20           1              0.000000222940   3.573399276663  17.716850872900
21           1             -3.094654105600   5.360098915000   5.061237890700
22           1             -3.094654105600   5.360098915000  10.124677673100
23           1             -3.094654105600   5.360098915000  15.186624218600
24           1             -3.094654105600   5.360098915000  20.249355346200
25           1             -3.094653994140   7.146798553337   2.533314364500
26           1             -3.094653994140   7.146798553337  12.654550000000
27           1             -3.094653994140   7.146798553337  22.777785054400
28           1             -1.547326829860   6.253448734163   0.000000000000
29           1             -1.547326829860   6.253448734163   7.593236182000
30           1             -1.547326829860   6.253448734163  17.716850872900
31           1             -4.641981158400   8.040148372500   5.061237890700
32           1             -4.641981158400   8.040148372500  10.124677673100
33           1             -4.641981158400   8.040148372500  15.186624218600
34           1             -4.641981158400   8.040148372500  20.249355346200
35           1             -4.641981046940   9.826848010837   2.533314364500
36           1             -4.641981046940   9.826848010837  12.654550000000
37           1             -4.641981046940   9.826848010837  22.777785054400
38           1             -3.094653882660   8.933498191663   0.000000000000
39           1             -3.094653882660   8.933498191663   7.593236182000
40           1             -3.094653882660   8.933498191663  17.716850872900
41           1              3.094654440000   0.000000000000   5.061237890700
42           1              3.094654440000   0.000000000000  10.124677673100
43           1              3.094654440000   0.000000000000  15.186624218600
44           1              3.094654440000   0.000000000000  20.249355346200
45           1              3.094654551460   1.786699638337   2.533314364500
46           1              3.094654551460   1.786699638337  12.654550000000
47           1              3.094654551460   1.786699638337  22.777785054400
48           1              4.641981715740   0.893349819163   0.000000000000
49           1              4.641981715740   0.893349819163   7.593236182000
50           1              4.641981715740   0.893349819163  17.716850872900
51           1              1.547327387200   2.680049457500   5.061237890700
52           1              1.547327387200   2.680049457500  10.124677673100
53           1              1.547327387200   2.680049457500  15.186624218600
54           1              1.547327387200   2.680049457500  20.249355346200
55           1              1.547327498660   4.466749095837   2.533314364500
56           1              1.547327498660   4.466749095837  12.654550000000
57           1              1.547327498660   4.466749095837  22.777785054400
58           1              3.094654662940   3.573399276663   0.000000000000
59           1              3.094654662940   3.573399276663   7.593236182000
60           1              3.094654662940   3.573399276663  17.716850872900
61           1              0.000000334400   5.360098915000   5.061237890700
62           1              0.000000334400   5.360098915000  10.124677673100
63           1              0.000000334400   5.360098915000  15.186624218600
64           1              0.000000334400   5.360098915000  20.249355346200
65           1              0.000000445860   7.146798553337   2.533314364500
66           1              0.000000445860   7.146798553337  12.654550000000
67           1              0.000000445860   7.146798553337  22.777785054400
68           1              1.547327610140   6.253448734163   0.000000000000
69           1              1.547327610140   6.253448734163   7.593236182000
70           1              1.547327610140   6.253448734163  17.716850872900
71           1             -1.547326718400   8.040148372500   5.061237890700
72           1             -1.547326718400   8.040148372500  10.124677673100
73           1             -1.547326718400   8.040148372500  15.186624218600
74           1             -1.547326718400   8.040148372500  20.249355346200
75           1             -1.547326606940   9.826848010837   2.533314364500
76           1             -1.547326606940   9.826848010837  12.654550000000
77           1             -1.547326606940   9.826848010837  22.777785054400
78           1              0.000000557340   8.933498191663   0.000000000000
79           1              0.000000557340   8.933498191663   7.593236182000
80           1              0.000000557340   8.933498191663  17.716850872900
81           1              6.189308880000   0.000000000000   5.061237890700
82           1              6.189308880000   0.000000000000  10.124677673100
83           1              6.189308880000   0.000000000000  15.186624218600
84           1              6.189308880000   0.000000000000  20.249355346200
85           1              6.189308991460   1.786699638337   2.533314364500
86           1              6.189308991460   1.786699638337  12.654550000000
87           1              6.189308991460   1.786699638337  22.777785054400
88           1              7.736636155740   0.893349819163   0.000000000000
89           1              7.736636155740   0.893349819163   7.593236182000
90           1              7.736636155740   0.893349819163  17.716850872900
91           1              4.641981827200   2.680049457500   5.061237890700
92           1              4.641981827200   2.680049457500  10.124677673100
93           1              4.641981827200   2.680049457500  15.186624218600
94           1              4.641981827200   2.680049457500  20.249355346200
95           1              4.641981938660   4.466749095837   2.533314364500
96           1              4.641981938660   4.466749095837  12.654550000000
97           1              4.641981938660   4.466749095837  22.777785054400
98           1              6.189309102940   3.573399276663   0.000000000000
99           1              6.189309102940   3.573399276663   7.593236182000
100          1              6.189309102940   3.573399276663  17.716850872900
101          1              3.094654774400   5.360098915000   5.061237890700
102          1              3.094654774400   5.360098915000  10.124677673100
103          1              3.094654774400   5.360098915000  15.186624218600
104          1              3.094654774400   5.360098915000  20.249355346200
105          1              3.094654885860   7.146798553337   2.533314364500
106          1              3.094654885860   7.146798553337  12.654550000000
107          1              3.094654885860   7.146798553337  22.777785054400
108          1              4.641982050140   6.253448734163   0.000000000000
109          1              4.641982050140   6.253448734163   7.593236182000
110          1              4.641982050140   6.253448734163  17.716850872900
111          1              1.547327721600   8.040148372500   5.061237890700
112          1              1.547327721600   8.040148372500  10.124677673100
113          1              1.547327721600   8.040148372500  15.186624218600
114          1              1.547327721600   8.040148372500  20.249355346200
115          1              1.547327833060   9.826848010837   2.533314364500
116          1              1.547327833060   9.826848010837  12.654550000000
117          1              1.547327833060   9.826848010837  22.777785054400
118          1              3.094654997340   8.933498191663   0.000000000000
119          1              3.094654997340   8.933498191663   7.593236182000
120          1              3.094654997340   8.933498191663  17.716850872900
121          1              9.283963320000   0.000000000000   5.061237890700
122          1              9.283963320000   0.000000000000  10.124677673100
123          1              9.283963320000   0.000000000000  15.186624218600
124          1              9.283963320000   0.000000000000  20.249355346200
125          1              9.283963431460   1.786699638337   2.533314364500
126          1              9.283963431460   1.786699638337  12.654550000000
127          1              9.283963431460   1.786699638337  22.777785054400
128          1             10.831290595740   0.893349819163   0.000000000000
129          1             10.831290595740   0.893349819163   7.593236182000
130          1             10.831290595740   0.893349819163  17.716850872900
131          1              7.736636267200   2.680049457500   5.061237890700
132          1              7.736636267200   2.680049457500  10.124677673100
133          1              7.736636267200   2.680049457500  15.186624218600
134          1              7.736636267200   2.680049457500  20.249355346200
135          1              7.736636378660   4.466749095837   2.533314364500
136          1              7.736636378660   4.466749095837  12.654550000000
137          1              7.736636378660   4.466749095837  22.777785054400
138          1              9.283963542940   3.573399276663   0.000000000000
139          1              9.283963542940   3.573399276663   7.593236182000
140          1              9.283963542940   3.573399276663  17.716850872900
141          1              6.189309214400   5.360098915000   5.061237890700
142          1              6.189309214400   5.360098915000  10.124677673100
143          1              6.189309214400   5.360098915000  15.186624218600
144          1              6.189309214400   5.360098915000  20.249355346200
145          1              6.189309325860   7.146798553337   2.533314364500
146          1              6.189309325860   7.146798553337  12.654550000000
147          1              6.189309325860   7.146798553337  22.777785054400
148          1              7.736636490140   6.253448734163   0.000000000000
149          1              7.736636490140   6.253448734163   7.593236182000
150          1              7.736636490140   6.253448734163  17.716850872900
151          1              4.641982161600   8.040148372500   5.061237890700
152          1              4.641982161600   8.040148372500  10.124677673100
153          1              4.641982161600   8.040148372500  15.186624218600
154          1              4.641982161600   8.040148372500  20.249355346200
155          1              4.641982273060   9.826848010837   2.533314364500
156          1              4.641982273060   9.826848010837  12.654550000000
157          1              4.641982273060   9.826848010837  22.777785054400
158          1              6.189309437340   8.933498191663   0.000000000000
159          1              6.189309437340   8.933498191663   7.593236182000
160          1              6.189309437340   8.933498191663  17.716850872900
161          2              0.000000000000   0.000000000000   3.163536263600
162          2              0.000000000000   0.000000000000   8.228241501000
163          2              0.000000000000   0.000000000000  13.290086810100
164          2              0.000000000000   0.000000000000  18.350919755200
165          2              0.000000111460   1.786699638337   0.634954700800
166          2              0.000000111460   1.786699638337  10.751862480200
167          2              0.000000111460   1.786699638337  20.880285900100
168          2              1.547327275740   0.893349819163   5.689966552900
169          2              1.547327275740   0.893349819163  15.813733098400
170          2              1.547327275740   0.893349819163  23.406412480200
171          2             -1.547327052800   2.680049457500   3.163536263600
172          2             -1.547327052800   2.680049457500   8.228241501000
173          2             -1.547327052800   2.680049457500  13.290086810100
174          2             -1.547327052800   2.680049457500  18.350919755200
175          2             -1.547326941340   4.466749095837   0.634954700800
176          2             -1.547326941340   4.466749095837  10.751862480200
177          2             -1.547326941340   4.466749095837  20.880285900100
178          2              0.000000222940   3.573399276663   5.689966552900
179          2              0.000000222940   3.573399276663  15.813733098400
180          2              0.000000222940   3.573399276663  23.406412480200
181          2             -3.094654105600   5.360098915000   3.163536263600
182          2             -3.094654105600   5.360098915000   8.228241501000
183          2             -3.094654105600   5.360098915000  13.290086810100
184          2             -3.094654105600   5.360098915000  18.350919755200
185          2             -3.094653994140   7.146798553337   0.634954700800
186          2             -3.094653994140   7.146798553337  10.751862480200
187          2             -3.094653994140   7.146798553337  20.880285900100
188          2             -1.547326829860   6.253448734163   5.689966552900
189          2             -1.547326829860   6.253448734163  15.813733098400
190          2             -1.547326829860   6.253448734163  23.406412480200
191          2             -4.641981158400   8.040148372500   3.163536263600
192          2             -4.641981158400   8.040148372500   8.228241501000
193          2             -4.641981158400   8.040148372500  13.290086810100
194          2             -4.641981158400   8.040148372500  18.350919755200
195          2             -4.641981046940   9.826848010837   0.634954700800
196          2             -4.641981046940   9.826848010837  10.751862480200
197          2             -4.641981046940   9.826848010837  20.880285900100
198          2             -3.094653882660   8.933498191663   5.689966552900
199          2             -3.094653882660   8.933498191663  15.813733098400
200          2             -3.094653882660   8.933498191663  23.406412480200
201          2              3.094654440000   0.000000000000   3.163536263600
202          2              3.094654440000   0.000000000000   8.228241501000
203          2              3.094654440000   0.000000000000  13.290086810100
204          2              3.094654440000   0.000000000000  18.350919755200
205          2              3.094654551460   1.786699638337   0.634954700800
206          2              3.094654551460   1.786699638337  10.751862480200
207          2              3.094654551460   1.786699638337  20.880285900100
208          2              4.641981715740   0.893349819163   5.689966552900
209          2              4.641981715740   0.893349819163  15.813733098400
210          2              4.641981715740   0.893349819163  23.406412480200
211          2              1.547327387200   2.680049457500   3.163536263600
212          2              1.547327387200   2.680049457500   8.228241501000
213          2              1.547327387200   2.680049457500  13.290086810100
214          2              1.547327387200   2.680049457500  18.350919755200
215          2              1.547327498660   4.466749095837   0.634954700800
216          2              1.547327498660   4.466749095837  10.751862480200
217          2              1.547327498660   4.466749095837  20.880285900100
218          2              3.094654662940   3.573399276663   5.689966552900
219          2              3.094654662940   3.573399276663  15.813733098400
220          2              3.094654662940   3.573399276663  23.406412480200
221          2              0.000000334400   5.360098915000   3.163536263600
222          2              0.000000334400   5.360098915000   8.228241501000
223          2              0.000000334400   5.360098915000  13.290086810100
224          2              0.000000334400   5.360098915000  18.350919755200
225          2              0.000000445860   7.146798553337   0.634954700800
226          2              0.000000445860   7.146798553337  10.751862480200
227          2              0.000000445860   7.146798553337  20.880285900100
228          2              1.547327610140   6.253448734163   5.689966552900
229          2              1.547327610140   6.253448734163  15.813733098400
230          2              1.547327610140   6.253448734163  23.406412480200
231          2             -1.547326718400   8.040148372500   3.163536263600
232          2             -1.547326718400   8.040148372500   8.228241501000
233          2             -1.547326718400   8.040148372500  13.290086810100
234          2             -1.547326718400   8.040148372500  18.350919755200
235          2             -1.547326606940   9.826848010837   0.634954700800
236          2             -1.547326606940   9.826848010837  10.751862480200
237          2             -1.547326606940   9.826848010837  20.880285900100
238          2              0.000000557340   8.933498191663   5.689966552900
239          2              0.000000557340   8.933498191663  15.813733098400
240          2              0.000000557340   8.933498191663  23.406412480200
241          2              6.189308880000   0.000000000000   3.163536263600
242          2              6.189308880000   0.000000000000   8.228241501000
243          2              6.189308880000   0.000000000000  13.290086810100
244          2              6.189308880000   0.000000000000  18.350919755200
245          2              6.189308991460   1.786699638337   0.634954700800
246          2              6.189308991460   1.786699638337  10.751862480200
247          2              6.189308991460   1.786699638337  20.880285900100
248          2              7.736636155740   0.893349819163   5.689966552900
249          2              7.736636155740   0.893349819163  15.813733098400
250          2              7.736636155740   0.893349819163  23.406412480200
251          2              4.641981827200   2.680049457500   3.163536263600
252          2              4.641981827200   2.680049457500   8.228241501000
253          2              4.641981827200   2.680049457500  13.290086810100
254          2              4.641981827200   2.680049457500  18.350919755200
255          2              4.641981938660   4.466749095837   0.634954700800
256          2              4.641981938660   4.466749095837  10.751862480200
257          2              4.641981938660   4.466749095837  20.880285900100
258          2              6.189309102940   3.573399276663   5.689966552900
259          2              6.189309102940   3.573399276663  15.813733098400
260          2              6.189309102940   3.573399276663  23.406412480200
261          2              3.094654774400   5.360098915000   3.163536263600
262          2              3.094654774400   5.360098915000   8.228241501000
263          2              3.094654774400   5.360098915000  13.290086810100
264          2              3.094654774400   5.360098915000  18.350919755200
265          2              3.094654885860   7.146798553337   0.634954700800
266          2              3.094654885860   7.146798553337  10.751862480200
267          2              3.094654885860   7.146798553337  20.880285900100
268          2              4.641982050140   6.253448734163   5.689966552900
269          2              4.641982050140   6.253448734163  15.813733098400
270          2              4.641982050140   6.253448734163  23.406412480200
271          2              1.547327721600   8.040148372500   3.163536263600
272          2              1.547327721600   8.040148372500   8.228241501000
273          2              1.547327721600   8.040148372500  13.290086810100
274          2              1.547327721600   8.040148372500  18.350919755200
275          2              1.547327833060   9.826848010837   0.634954700800
276          2              1.547327833060   9.826848010837  10.751862480200
277          2              1.547327833060   9.826848010837  20.880285900100
278          2              3.094654997340   8.933498191663   5.689966552900
279          2              3.094654997340   8.933498191663  15.813733098400
280          2              3.094654997340   8.933498191663  23.406412480200
281          2              9.283963320000   0.000000000000   3.163536263600
282          2              9.283963320000   0.000000000000   8.228241501000
283          2              9.283963320000   0.000000000000  13.290086810100
284          2              9.283963320000   0.000000000000  18.350919755200
285          2              9.283963431460   1.786699638337   0.634954700800
286          2              9.283963431460   1.786699638337  10.751862480200
287          2              9.283963431460   1.786699638337  20.880285900100
288          2             10.831290595740   0.893349819163   5.689966552900
289          2             10.831290595740   0.893349819163  15.813733098400
290          2             10.831290595740   0.893349819163  23.406412480200
291          2              7.736636267200   2.680049457500   3.163536263600
292          2              7.736636267200   2.680049457500   8.228241501000
293          2              7.736636267200   2.680049457500  13.290086810100
294          2              7.736636267200   2.680049457500  18.350919755200
295          2              7.736636378660   4.466749095837   0.634954700800
296          2              7.736636378660   4.466749095837  10.751862480200
297          2              7.736636378660   4.466749095837  20.880285900100
298          2              9.283963542940   3.573399276663   5.689966552900
299          2              9.283963542940   3.573399276663  15.813733098400
300          2              9.283963542940   3.573399276663  23.406412480200
301          2              6.189309214400   5.360098915000   3.163536263600
302          2              6.189309214400   5.360098915000   8.228241501000
303          2              6.189309214400   5.360098915000  13.290086810100
304          2              6.189309214400   5.360098915000  18.350919755200
305          2              6.189309325860   7.146798553337   0.634954700800
306          2              6.189309325860   7.146798553337  10.751862480200
307          2              6.189309325860   7.146798553337  20.880285900100
308          2              7.736636490140   6.253448734163   5.689966552900
309          2              7.736636490140   6.253448734163  15.813733098400
310          2              7.736636490140   6.253448734163  23.406412480200
311          2              4.641982161600   8.040148372500   3.163536263600
312          2              4.641982161600   8.040148372500   8.228241501000
313          2              4.641982161600   8.040148372500  13.290086810100
314          2              4.641982161600   8.040148372500  18.350919755200
315          2              4.641982273060   9.826848010837   0.634954700800
316          2              4.641982273060   9.826848010837  10.751862480200
317          2              4.641982273060   9.826848010837  20.880285900100
318          2              6.189309437340   8.933498191663   5.689966552900
319          2              6.189309437340   8.933498191663  15.813733098400
320          2              6.189309437340   8.933498191663  23.406412480200
