ITEM: TIMESTEP
0
ITEM: NUMBER OF ATOMS
96
ITEM: BOX BOUNDS xy xz yz pp pp pp
-1.7274452626000001e+00 1.0104840183100000e+01 0.0000000000000000e+00
0.0000000000000000e+00 1.0280700000000000e+01 -1.7274452626000001e+00
0.0000000000000000e+00 1.0275204583100001e+01 0.0000000000000000e+00
ITEM: ATOMS id type x y z fx fy fz
1 1 1.22366 2.7841 1.06666 -0.00153967 0.000760034 0.00233165
5 1 6.27608 2.7841 1.06666 -0.00153966 0.000760033 0.00233165
9 1 3.39691 0.21396 1.50213 0.00148726 -0.000872943 -0.00198779
13 1 8.44933 0.21396 1.50213 0.00148726 -0.000872943 -0.00198779
17 1 2.96503 2.35622 4.07094 0.00196714 0.00054307 -0.0024594
21 1 8.01745 2.35622 4.07094 0.00196714 0.00054307 -0.0024594
25 1 0.79179 4.92642 3.63547 -0.0010648 -0.000418607 0.00185566
29 1 5.84421 4.92642 3.63547 -0.00106479 -0.000418606 0.00185566
33 2 0.1082 4.36821 1.69191 -0.000253858 -0.0160776 0.00140409
37 2 5.16062 4.36821 1.69191 -0.00025386 -0.0160776 0.00140409
41 2 4.51237 1.79803 0.876898 0.000313428 -0.0157063 -0.0018338
45 2 9.56479 1.79803 0.876898 0.000313428 -0.0157063 -0.0018338
49 2 4.08052 0.772124 3.44569 -0.00041594 0.0165969 -0.00144432
53 2 9.13294 0.772124 3.44569 -0.00041594 0.0165969 -0.00144432
57 2 -0.323644 3.34233 4.26071 -0.000986365 0.0151672 0.00178556
61 2 4.72878 3.34233 4.26071 -0.000986368 0.0151672 0.00178556
65 2 1.82611 1.33361 2.48379 -0.00638916 -0.00119751 0.00927637
69 2 6.87853 1.33361 2.48379 -0.00638916 -0.00119751 0.00927637
73 2 2.79445 3.90379 0.0850021 0.00675204 -0.00144195 -0.00907834
77 2 7.84687 3.90379 0.0850021 0.00675204 -0.00144195 -0.00907834
81 2 2.36259 3.80674 2.6538 0.00663194 0.00111666 -0.00910456
85 2 7.41501 3.80674 2.6538 0.00663193 0.00111666 -0.00910456
89 2 1.39425 1.23656 5.0526 -0.00650201 0.00153095 0.00925489
93 2 6.44667 1.23656 5.0526 -0.00650201 0.00153095 0.00925489
2 1 0.359939 2.7841 6.20426 -0.00153967 0.000760034 0.00233166
6 1 5.41236 2.7841 6.20426 -0.00153966 0.000760034 0.00233166
10 1 2.53318 0.21396 6.63974 0.00148726 -0.000872943 -0.00198779
14 1 7.5856 0.21396 6.63974 0.00148726 -0.000872943 -0.00198779
18 1 2.10131 2.35622 9.20855 0.00196714 0.00054307 -0.0024594
22 1 7.15373 2.35622 9.20855 0.00196714 0.00054307 -0.0024594
26 1 -0.0719329 4.92642 8.77307 -0.0010648 -0.000418607 0.00185566
30 1 4.98049 4.92642 8.77307 -0.00106479 -0.000418606 0.00185566
34 2 -0.755522 4.36821 6.82952 -0.000253857 -0.0160776 0.00140409
38 2 4.2969 4.36821 6.82952 -0.000253859 -0.0160776 0.00140409
42 2 3.64864 1.79803 6.0145 0.000313428 -0.0157063 -0.0018338
46 2 8.70106 1.79803 6.0145 0.000313428 -0.0157063 -0.0018338
50 2 3.2168 0.772124 8.58329 -0.00041594 0.0165969 -0.00144432
54 2 8.26922 0.772124 8.58329 -0.00041594 0.0165969 -0.00144432
58 2 -1.18737 3.34233 9.39831 -0.000986365 0.0151672 0.00178556
62 2 3.86505 3.34233 9.39831 -0.000986368 0.0151672 0.00178556
66 2 0.96239 1.33361 7.6214 -0.00638916 -0.00119751 0.00927637
70 2 6.01481 1.33361 7.6214 -0.00638916 -0.00119751 0.00927637
74 2 1.93072 3.90379 5.2226 0.00675204 -0.00144195 -0.00907835
78 2 6.98314 3.90379 5.2226 0.00675204 -0.00144195 -0.00907835
82 2 1.49887 3.80674 7.79141 0.00663193 0.00111666 -0.00910457
86 2 6.55129 3.80674 7.79141 0.00663193 0.00111666 -0.00910457
90 2 0.53053 1.23656 10.1902 -0.00650201 0.00153095 0.00925489
94 2 5.58295 1.23656 10.1902 -0.00650201 0.00153095 0.00925489
3 1 1.22366 7.92445 1.06666 -0.00153967 0.000760034 0.00233165
7 1 6.27608 7.92445 1.06666 -0.00153966 0.000760033 0.00233165
11 1 3.39691 5.35431 1.50213 0.00148726 -0.000872943 -0.00198779
15 1 8.44933 5.35431 1.50213 0.00148726 -0.000872943 -0.00198779
19 1 2.96503 7.49657 4.07094 0.00196714 0.00054307 -0.0024594
23 1 8.01745 7.49657 4.07094 0.00196714 0.00054307 -0.0024594
27 1 0.79179 10.0668 3.63547 -0.0010648 -0.000418607 0.00185566
31 1 5.84421 10.0668 3.63547 -0.00106479 -0.000418606 0.00185566
35 2 0.1082 9.50856 1.69191 -0.000253858 -0.0160776 0.00140409
39 2 5.16062 9.50856 1.69191 -0.00025386 -0.0160776 0.00140409
43 2 4.51237 6.93838 0.876898 0.000313428 -0.0157063 -0.0018338
47 2 9.56479 6.93838 0.876898 0.000313428 -0.0157063 -0.0018338
51 2 4.08052 5.91247 3.44569 -0.00041594 0.0165969 -0.00144432
55 2 9.13294 5.91247 3.44569 -0.00041594 0.0165969 -0.00144432
59 2 -0.323644 8.48268 4.26071 -0.000986365 0.0151672 0.00178556
63 2 4.72878 8.48268 4.26071 -0.000986368 0.0151672 0.00178556
67 2 1.82611 6.47396 2.48379 -0.00638916 -0.00119751 0.00927637
71 2 6.87853 6.47396 2.48379 -0.00638916 -0.00119751 0.00927637
75 2 2.79445 9.04414 0.0850021 0.00675204 -0.00144195 -0.00907834
79 2 7.84687 9.04414 0.0850021 0.00675204 -0.00144195 -0.00907834
83 2 2.36259 8.94709 2.6538 0.00663194 0.00111666 -0.00910456
87 2 7.41501 8.94709 2.6538 0.00663193 0.00111666 -0.00910456
91 2 1.39425 6.37691 5.0526 -0.00650201 0.00153095 0.00925489
95 2 6.44667 6.37691 5.0526 -0.00650201 0.00153095 0.00925489
4 1 0.359939 7.92445 6.20426 -0.00153967 0.000760034 0.00233166
8 1 5.41236 7.92445 6.20426 -0.00153966 0.000760034 0.00233166
12 1 2.53318 5.35431 6.63974 0.00148726 -0.000872943 -0.00198779
16 1 7.5856 5.35431 6.63974 0.00148726 -0.000872943 -0.00198779
20 1 2.10131 7.49657 9.20855 0.00196714 0.00054307 -0.0024594
24 1 7.15373 7.49657 9.20855 0.00196714 0.00054307 -0.0024594
28 1 -0.0719329 10.0668 8.77307 -0.0010648 -0.000418607 0.00185566
32 1 4.98049 10.0668 8.77307 -0.00106479 -0.000418606 0.00185566
36 2 -0.755522 9.50856 6.82952 -0.000253857 -0.0160776 0.00140409
40 2 4.2969 9.50856 6.82952 -0.000253859 -0.0160776 0.00140409
44 2 3.64864 6.93838 6.0145 0.000313428 -0.0157063 -0.0018338
48 2 8.70106 6.93838 6.0145 0.000313428 -0.0157063 -0.0018338
52 2 3.2168 5.91247 8.58329 -0.00041594 0.0165969 -0.00144432
56 2 8.26922 5.91247 8.58329 -0.00041594 0.0165969 -0.00144432
60 2 -1.18737 8.48268 9.39831 -0.000986365 0.0151672 0.00178556
64 2 3.86505 8.48268 9.39831 -0.000986368 0.0151672 0.00178556
68 2 0.96239 6.47396 7.6214 -0.00638916 -0.00119751 0.00927637
72 2 6.01481 6.47396 7.6214 -0.00638916 -0.00119751 0.00927637
76 2 1.93072 9.04414 5.2226 0.00675204 -0.00144195 -0.00907835
80 2 6.98314 9.04414 5.2226 0.00675204 -0.00144195 -0.00907835
84 2 1.49887 8.94709 7.79141 0.00663193 0.00111666 -0.00910457
88 2 6.55129 8.94709 7.79141 0.00663193 0.00111666 -0.00910457
92 2 0.53053 6.37691 10.1902 -0.00650201 0.00153095 0.00925489
96 2 5.58295 6.37691 10.1902 -0.00650201 0.00153095 0.00925489
ITEM: TIMESTEP
10
ITEM: NUMBER OF ATOMS
96
ITEM: BOX BOUNDS xy xz yz pp pp pp
-1.8431249517936124e+00 1.0191045786801009e+01 0.0000000000000000e+00
-8.7705884893777508e-02 1.0368405884893779e+01 -1.7569193480926018e+00
-8.7659002833015975e-02 1.0362863585933015e+01 0.0000000000000000e+00
ITEM: ATOMS id type x y z fx fy fz
1 1 1.15289 2.74607 0.975018 -0.217683 0.318148 0.527543
5 1 6.28 2.75067 0.972913 0.0761124 -0.352794 0.210442
9 1 3.4022 0.149962 1.45212 -0.172714 -0.472393 0.44776
13 1 8.55299 0.106861 1.46209 -0.407374 0.682253 -0.690353
17 1 2.90644 2.33776 4.04033 0.477316 -0.633152 0.626641
21 1 8.05107 2.275 4.05855 0.815939 0.875969 0.167394
25 1 0.747623 4.92078 3.61667 -1.13024 0.53581 -0.526928
29 1 5.88951 4.88485 3.6392 -1.11087 0.488347 -0.339358
33 2 0.000896531 4.42329 1.63363 0.388259 -0.814311 0.114763
37 2 5.14664 4.32125 1.67297 0.0418994 -0.071131 -0.154101
41 2 4.5709 1.68947 0.790228 -0.393681 -0.00657314 -0.123574
45 2 9.67674 1.77474 0.758097 -0.468205 -0.552554 0.358931
49 2 4.11906 0.710805 3.47532 -0.469371 0.0263994 -0.468921
53 2 9.26109 0.762117 3.41611 0.1336 -0.310735 -0.424777
57 2 -0.41977 3.39056 4.32051 -0.441851 -0.353548 -0.434478
61 2 4.70593 3.26216 4.21058 0.609585 0.483346 0.793518
65 2 1.84671 1.34637 2.4941 -0.155181 -0.615688 -0.500079
69 2 6.954 1.20539 2.45381 0.10537 0.725361 -0.39315
73 2 2.76559 3.84409 0.0352127 -0.30068 0.177964 0.0081333
77 2 7.84996 3.86323 -0.0542429 0.246771 0.372765 0.715518
81 2 2.3485 3.81308 2.65154 -0.705507 -0.0535256 -0.377928
85 2 7.39113 3.78473 2.65045 0.6136 -0.133971 -0.435711
89 2 1.30723 1.09383 5.06096 0.460568 0.862597 0.0903639
93 2 6.56068 1.2094 5.00059 -0.870824 -0.698612 0.899775
2 1 0.298835 2.77806 6.20726 -0.76265 -0.388746 0.367418
6 1 5.39188 2.75366 6.23615 -0.032689 0.00191744 -0.192179
10 1 2.48223 0.138942 6.68296 -0.227593 -0.0837411 -0.17964
14 1 7.65022 0.128805 6.6815 0.151138 0.584405 -0.605169
18 1 2.03711 2.31008 9.29412 0.114935 -0.190149 -0.112775
22 1 7.21429 2.29994 9.24649 -0.294573 -0.41975 0.875289
26 1 -0.170775 4.92679 8.81107 -0.0891005 -0.0351125 0.139391
30 1 4.99715 4.92941 8.8634 -0.80517 -0.194162 -0.596272
34 2 -0.8026 4.38231 6.89383 -0.755672 -0.0599232 -0.0754709
38 2 4.27624 4.35135 6.86278 0.0799904 0.0587772 0.103807
42 2 3.58668 1.81155 6.12965 -0.206509 -0.355846 -0.7553
46 2 8.77839 1.7697 6.04133 -0.141776 -0.267857 0.0323901
50 2 3.13716 0.699891 8.63266 0.551225 -0.213433 -0.0182999
54 2 8.35247 0.657693 8.65555 -0.673422 0.370757 -0.378412
58 2 -1.30085 3.31266 9.52756 0.064838 0.43003 -0.504609
62 2 3.76938 3.39919 9.48491 0.117093 -0.374718 0.393924
66 2 0.866219 1.28203 7.67372 0.0069209 -0.327324 0.262816
70 2 5.97728 1.26576 7.71776 0.662441 -0.290757 -0.922929
74 2 1.82222 3.96971 5.18505 0.795006 -0.70753 0.636856
78 2 7.0591 3.87659 5.28196 -0.731221 -0.03019 -0.329941
82 2 1.36865 3.73855 7.89537 0.612854 0.475799 -0.538612
86 2 6.55066 3.72604 7.86072 -0.0203289 0.685497 -0.343322
90 2 0.47562 1.1069 10.3738 -0.035783 0.737391 -0.749316
94 2 5.61702 1.11895 10.2773 0.157122 0.754165 -0.0197216
3 1 1.16414 7.93351 0.985451 -0.201518 0.60184 -0.12818
7 1 6.28406 7.98891 1.01731 -0.196102 -0.0121859 -0.163656
11 1 3.3495 5.35682 1.44485 0.703273 -0.203358 0.481811
15 1 8.48106 5.37874 1.4174 0.579105 -0.0616207 0.969252
19 1 2.90055 7.51589 4.08059 0.412667 0.00748639 -0.263445
23 1 8.11238 7.54547 4.05139 -0.345917 -0.288941 0.0690932
27 1 0.694946 10.1405 3.58922 1.06189 0.109089 0.116266
31 1 5.86465 10.1321 3.60067 -0.0715324 0.116988 0.449106
35 2 0.0857947 9.65698 1.55196 -0.0168416 -0.401597 0.523745
39 2 5.23411 9.6465 1.67047 -0.637421 -0.691679 -0.175073
43 2 4.51506 6.94838 0.828722 0.350248 0.377023 -0.433589
47 2 9.63427 6.95806 0.740036 0.0170564 -0.205446 0.215317
51 2 4.04392 5.87267 3.37898 0.0160377 0.5097 0.57162
55 2 9.21741 5.96586 3.40391 -0.0283702 -0.197993 -0.389383
59 2 -0.355102 8.52215 4.1596 -0.460996 -0.136738 0.685276
63 2 4.67623 8.47856 4.33896 0.363911 0.778392 -0.634076
67 2 1.75205 6.49852 2.43477 0.0633325 -0.206013 0.193035
71 2 6.9115 6.56239 2.49607 0.131607 -0.526557 -0.433741
75 2 2.69412 9.13075 -0.0611412 0.706857 -0.425958 0.736671
79 2 7.81672 9.15068 0.00872182 0.431084 -0.738457 -0.222194
83 2 2.30783 8.96205 2.62303 0.169588 0.601021 -0.590817
87 2 7.5264 9.02594 2.64656 -0.208336 -0.0189829 -0.280053
91 2 1.24462 6.44182 5.11784 0.786141 -0.493954 -0.648733
95 2 6.44658 6.38311 5.06048 0.422056 0.0510743 0.180419
4 1 0.2764 7.96282 6.22181 0.0941106 0.432125 0.146347
8 1 5.411 7.98397 6.23572 -0.612371 -0.623939 -0.709026
12 1 2.49585 5.38808 6.643 -0.11877 -0.369674 0.972916
16 1 7.60641 5.39181 6.65526 0.951532 -0.709542 -0.129906
20 1 2.05496 7.51899 9.29086 0.0822079 0.159338 -0.154877
24 1 7.17321 7.52552 9.25199 0.681409 0.216428 0.648936
28 1 -0.159366 10.1476 8.83305 0.157105 -0.368045 -0.0248095
32 1 4.98897 10.1316 8.79695 -1.06518 0.38981 0.868694
36 2 -0.878103 9.644 6.76458 0.446921 -0.649798 0.495876
40 2 4.19543 9.50734 6.90725 0.482658 0.240952 0.0479877
44 2 3.59149 6.93778 6.06163 0.439613 0.18391 -0.416189
48 2 8.76612 6.98798 6.03779 -0.11697 0.0862253 -0.482448
52 2 3.2007 5.93432 8.57841 0.0784071 0.272944 0.381987
56 2 8.33632 5.96169 8.55373 0.139962 -0.0540558 0.708744
60 2 -1.31463 8.49838 9.4904 -0.025126 0.494982 -0.612174
64 2 3.79926 8.53709 9.46538 0.310596 0.161874 0.465043
68 2 0.849449 6.49336 7.73252 0.512234 0.0964545 -0.560495
72 2 6.09633 6.44974 7.67935 -0.879699 0.422115 0.0516035
76 2 1.94788 9.08508 5.17972 -0.804013 0.281298 0.679154
80 2 6.96039 9.108 5.18603 0.185844 0.277936 0.705346
84 2 1.39704 8.98214 7.7986 -0.213143 0.260805 0.106173
88 2 6.53624 8.98259 7.79273 0.178354 0.268274 0.354933
92 2 0.51345 6.4041 10.3132 -0.512334 -0.307695 -0.239488
96 2 5.59126 6.42626 10.3373 -0.103077 -0.345323 -0.714348
ITEM: TIMESTEP
20
ITEM: NUMBER OF ATOMS
96
ITEM: BOX BOUNDS xy xz yz pp pp pp
-1.9106729042188419e+00 1.0241383162862231e+01 0.0000000000000000e+00
-1.3891930862888113e-01 1.0419619308628880e+01 -1.7741299244566102e+00
-1.3884505108645850e-01 1.0414049634186458e+01 0.0000000000000000e+00
ITEM: ATOMS id type x y z fx fy fz
1 1 1.10465 2.73067 0.922708 -0.610031 -0.195368 0.373635
5 1 6.27825 2.72694 0.912576 0.647033 -0.218767 0.363349
9 1 3.41396 0.110738 1.43638 -0.853308 -0.737903 0.23307
13 1 8.62462 0.0482762 1.43312 -0.538163 0.527497 -1.17868
17 1 2.87239 2.32535 4.0294 0.948685 -0.768611 0.554422
21 1 8.07851 2.23054 4.05738 0.230159 0.723335 0.177479
25 1 0.710761 4.92586 3.5979 -1.55578 -0.227465 -0.683145
29 1 5.90853 4.8548 3.64639 -0.554703 0.722482 -0.649072
33 2 -0.0040253 4.3213 1.6249 -0.7025 0.200659 0.182733
37 2 5.13205 4.2738 1.66089 -0.544334 0.430091 0.455311
41 2 4.56021 1.61518 0.70687 0.151931 0.392404 -0.140417
45 2 9.68003 1.6714 0.729347 0.959884 0.442412 -0.508014
49 2 4.07791 0.689921 3.41868 0.533804 -0.00979305 -0.274247
53 2 9.37206 0.722965 3.32517 -0.531076 0.0396578 0.343761
57 2 -0.55328 3.37444 4.3074 0.65596 -0.0334855 0.264657
61 2 4.78671 3.29031 4.31483 -1.28098 -0.187383 -0.371574
65 2 1.84795 1.26857 2.42845 -0.538545 0.101601 -0.0289058
69 2 7.02995 1.2415 2.37726 -0.253567 -0.410098 0.551607
73 2 2.70061 3.83395 0.0141413 0.247401 0.185998 -0.29373
77 2 7.88136 3.90382 -0.0218224 -0.0229761 -0.251748 -0.391863
81 2 2.22734 3.80757 2.60184 0.5812 -0.322389 0.365084
85 2 7.46615 3.75382 2.58823 -0.158484 0.202045 0.480299
89 2 1.32817 1.15652 5.07706 -0.418534 0.00754738 -0.477462
93 2 6.50618 1.08851 5.10105 0.222122 0.365583 -1.03981
90 2 2.21495 1.14092 -0.189937 -0.167791 -0.347853 -0.380075
2 1 0.256126 2.78016 6.20971 -0.926312 -0.647297 0.286098
6 1 5.3685 2.73946 6.25702 -0.0520278 -0.290265 0.0767226
10 1 2.44511 0.0972646 6.7121 0.0398617 0.0127867 -0.00911663
14 1 7.69803 0.0887691 6.70037 -0.298125 -0.180682 -0.664148
18 1 1.99606 2.28019 9.34847 0.252362 -0.206635 -0.310949
22 1 7.25296 2.25624 9.27259 -0.585956 0.349929 0.77606
26 1 -0.234711 4.92848 8.82616 -0.056642 0.0988208 0.0523885
30 1 4.99855 4.93045 8.91608 -0.843804 -0.153432 -0.660983
34 2 -0.959351 4.38571 6.92219 0.350155 -0.496791 -0.325527
38 2 4.26811 4.35296 6.90988 -0.394131 0.0911563 0.217034
42 2 3.50895 1.77041 6.08064 0.812073 -0.250231 -0.301756
46 2 8.81032 1.71471 6.05508 0.469489 0.152571 -0.545879
50 2 3.17877 0.628996 8.6553 -0.322383 0.726968 -0.0185458
54 2 8.30268 0.648911 8.6349 1.12825 -0.177824 0.177002
58 2 -1.36521 3.36546 9.53011 -0.521825 -0.637607 0.155624
62 2 3.714 3.39091 9.6119 0.347729 -0.065951 -0.304804
66 2 0.807734 1.20299 7.75489 0.412815 0.525277 -0.453645
70 2 6.05729 1.17755 7.62127 -0.297445 0.566796 0.482926
74 2 1.87558 3.89997 5.25571 -0.590429 -0.0596184 -0.488458
78 2 6.98797 3.85615 5.26929 0.499705 0.124426 -0.13516
82 2 1.38083 3.77414 7.8722 -0.271206 -0.104582 0.0886172
86 2 6.54294 3.78626 7.85527 0.176674 -0.311098 0.563961
94 2 5.66919 1.17189 10.3126 -0.310009 -0.385971 -0.608323
3 1 1.12819 7.93541 0.930623 -0.14636 0.854455 -0.268033
7 1 6.28114 8.03281 0.992015 0.397223 -0.410155 -0.871298
11 1 3.32699 5.35272 1.423 1.10355 -0.0470163 0.372937
15 1 8.49985 5.39907 1.37687 0.672426 -0.694101 0.660957
19 1 2.86073 7.51999 4.09213 1.23012 1.04298 -0.675629
23 1 8.17837 7.57108 4.04039 -0.846045 -0.552826 -0.158221
27 1 0.650439 10.1818 3.55577 1.41849 0.155334 0.202051
31 1 5.8768 10.1648 3.58644 -0.481935 0.622585 0.699449
35 2 0.0781524 9.67942 1.54727 -0.62711 -0.626492 0.334866
39 2 5.18462 9.61847 1.65149 0.0819648 0.0249861 0.445553
43 2 4.57043 7.0036 0.725455 -1.06823 -1.17955 0.265783
47 2 9.68581 6.93382 0.677763 0.506585 0.394788 0.0102158
51 2 4.02219 5.92936 3.42994 0.308371 -0.0359477 -0.434245
55 2 9.27121 5.97794 3.30462 0.263623 0.102451 0.305615
59 2 -0.431116 8.52413 4.19994 0.377303 0.701452 -0.0709135
63 2 4.69894 8.61005 4.29389 -0.356651 -0.188875 0.0271321
67 2 1.71934 6.48503 2.43615 0.275118 0.453944 -0.333987
71 2 6.95462 6.53351 2.4392 -0.0889801 -0.0416437 -0.174245
75 2 2.73966 9.11141 -0.0363994 -0.421025 0.100901 -0.433116
79 2 7.86663 9.09663 -0.0727443 0.439661 0.583038 0.357659
83 2 2.30253 9.05683 2.51484 -0.210781 -0.666723 1.10511
87 2 7.56886 9.07629 2.60703 -0.47214 0.0270411 0.266778
91 2 1.28146 6.4042 5.05532 0.215234 0.0685789 0.0630364
95 2 6.5177 6.39081 5.0948 -0.134424 0.0401124 -0.503412
4 1 0.22779 7.99016 6.23472 -0.0837609 0.454629 0.250811
8 1 5.39666 8.01256 6.24651 0.194139 -0.00215903 -0.454902
12 1 2.47556 5.41229 6.65561 0.668889 -0.721263 1.2205
16 1 7.62641 5.41357 6.65895 0.190695 -0.614602 0.411822
20 1 2.03256 7.5289 9.34171 0.614583 0.755177 0.0571698
24 1 7.18982 7.54268 9.27923 0.207395 0.436994 0.564654
28 1 -0.207614 10.1862 8.86673 -0.135175 -0.117238 0.0532849
32 1 4.97788 10.1687 8.81223 -0.383873 0.268401 1.04225
36 2 -0.882249 9.62455 6.79718 -0.663529 0.313068 0.536579
40 2 4.19162 9.52626 6.97508 -0.156926 0.170249 -0.31208
44 2 3.62592 6.96165 6.01307 -0.222719 0.0380515 -0.337287
48 2 8.78815 7.02794 5.96824 0.319303 -0.5379 0.350335
52 2 3.20884 6.00245 8.62325 -0.0378338 -0.140996 -0.132988
56 2 8.39764 5.99481 8.62876 -0.361532 -0.00103007 -0.393574
60 2 -1.39634 8.59175 9.44498 0.165241 -0.0751048 0.73331
64 2 3.79827 8.60675 9.5866 -0.231936 0.202182 -0.160799
68 2 0.868549 6.51986 7.70479 0.0652623 -0.0724586 -0.361161
72 2 6.01447 6.50094 7.72147 0.482999 0.122165 -0.294402
76 2 1.82644 9.14946 5.26122 -0.0448854 -0.12729 -0.473708
80 2 6.96882 9.18868 5.27458 0.332897 -0.548323 -0.554829
84 2 1.29429 9.04217 7.8249 0.587593 -0.065504 0.685093
88 2 6.54623 9.0386 7.84843 0.092613 -0.174873 0.142611
92 2 0.432247 6.36409 10.3527 0.242382 0.225652 0.0394854
96 2 5.58072 6.39854 10.3113 0.255963 0.171664 0.216236
ITEM: TIMESTEP
30
ITEM: NUMBER OF ATOMS
96
ITEM: BOX BOUNDS xy xz yz pp pp pp
-1.7985962777996745e+00 1.0157862595780948e+01 0.0000000000000000e+00
-5.3945189450965714e-02 1.0334645189450965e+01 -1.7455738651187251e+00
-5.3916353738824085e-02 1.0329120936838821e+01 0.0000000000000000e+00
ITEM: ATOMS id type x y z fx fy fz
1 1 1.14768 2.77493 0.987218 0.62302 0.112762 0.35026
5 1 6.25804 2.76162 0.969972 0.926872 0.243639 1.14611
9 1 3.45076 0.185861 1.52135 -1.3315 -0.778147 -0.438291
13 1 8.59324 0.133004 1.47579 -1.08781 0.5819 -0.607983
17 1 2.91291 2.37011 4.05791 0.0475602 -0.84087 0.0198353
21 1 8.03443 2.27641 4.08766 0.299354 0.660473 -0.406664
25 1 0.755075 4.93182 3.60502 -0.38505 -0.736908 -0.162884
29 1 5.8907 4.84689 3.67848 -0.956336 0.92708 -0.851404
33 2 -0.0148783 4.26626 1.73765 -0.0710314 0.208281 -0.38652
37 2 5.04885 4.29309 1.81478 1.11364 -1.16302 -0.474272
41 2 4.57464 1.68637 0.725609 -0.185532 -0.523611 0.48414
45 2 9.71406 1.70188 0.726963 -0.831104 -0.806858 0.0466359
49 2 4.1499 0.795729 3.33951 -0.207254 0.54882 0.229079
53 2 9.26825 0.798227 3.33961 -0.00652055 -0.0555122 0.222889
57 2 -0.42612 3.40423 4.34308 -0.143388 0.337132 -0.433832
61 2 4.64793 3.36039 4.37667 0.4827 0.620176 -0.346887
65 2 1.82681 1.2862 2.40538 0.0863099 -0.127813 -0.103664
69 2 6.99419 1.30571 2.44746 -0.465998 -0.330183 -0.729424
73 2 2.73105 3.8878 0.0552893 -0.059855 -0.266044 -0.249814
77 2 7.84065 3.92012 0.0786435 0.0340208 -0.441542 -0.230603
81 2 2.27522 3.78145 2.66729 0.184843 0.3218 -0.475741
85 2 7.45504 3.80047 2.67249 -0.350007 0.132733 -0.114306
89 2 1.36715 1.30322 5.0057 -0.217599 -1.29783 0.104563
93 2 6.44664 1.14218 5.0259 0.423231 0.711094 0.17541
90 2 2.23267 1.22256 -0.231734 -0.0244087 -0.284245 0.988992
2 1 0.319753 2.83038 6.19037 0.294971 -0.679071 0.0829174
6 1 5.33549 2.78214 6.25034 0.504962 -0.093293 -0.10414
10 1 2.47422 0.187521 6.69918 -0.237244 0.446656 -0.714603
14 1 7.67261 0.177648 6.66412 -0.825301 -0.0594844 -0.716403
18 1 2.03772 2.32098 9.28616 -0.17906 0.542741 -0.965522
22 1 7.22273 2.2924 9.20706 -0.875026 0.345781 0.0292459
26 1 -0.163717 4.93639 8.74749 0.243686 -0.366671 0.361241
30 1 4.98364 4.93262 8.85739 -0.152833 -0.208446 -0.478895
34 2 -0.911464 4.32096 6.85252 0.146476 0.379022 0.406398
38 2 4.22699 4.37316 6.94915 0.641536 -0.765323 -0.338413
42 2 3.63092 1.7348 5.95025 0.0856038 -0.670449 0.65268
46 2 8.81061 1.74223 5.94905 -0.573337 -0.788652 0.347442
50 2 3.22967 0.806973 8.57497 0.326671 -0.220119 -0.260037
54 2 8.36433 0.740784 8.54727 -0.412998 0.473105 0.0291449
58 2 -1.33368 3.37964 9.43785 0.909569 0.695062 0.146651
62 2 3.76779 3.42356 9.56107 -0.0536779 0.367959 -0.506225
66 2 0.941812 1.3197 7.66126 -0.102556 -0.104476 -0.625829
70 2 6.07137 1.29047 7.54702 -0.115958 -0.18425 0.609224
74 2 1.91463 3.86143 5.24738 -0.0551776 0.814028 0.0409163
78 2 6.94927 3.88108 5.23558 0.216525 -0.331534 0.591119
82 2 1.44497 3.84052 7.79877 -0.18704 0.0215534 0.527439
86 2 6.52816 3.83612 7.87341 0.00150576 -0.0591127 -0.374799
94 2 5.63846 1.25328 10.1156 -0.373369 -0.57128 0.809641
3 1 1.19254 7.88244 0.978716 0.699477 0.836605 0.133074
7 1 6.25331 7.993 1.05785 0.611508 -1.02052 -0.237193
11 1 3.36942 5.34209 1.50657 -0.244669 -0.289147 0.471464
15 1 8.44515 5.39925 1.44727 0.860889 -0.742915 0.149615
19 1 2.90158 7.48428 4.11385 0.950348 1.10991 -1.79647
23 1 8.14709 7.52399 4.05416 -1.1803 0.0674707 -0.321717
27 1 0.750324 10.0975 3.56791 1.21753 0.675348 0.664423
31 1 5.86036 10.0807 3.62701 0.389546 0.5799 0.591011
35 2 0.0659848 9.45611 1.7094 -0.16882 0.0830198 -0.194211
39 2 5.12675 9.459 1.78275 -0.127071 0.167579 -0.678236
43 2 4.48238 6.81997 0.777297 1.55053 1.16224 -0.0941
47 2 9.68901 6.91246 0.73945 -0.862275 -0.717539 0.039824
51 2 4.09719 5.96562 3.44996 0.196451 -0.144292 -0.261439
55 2 9.26169 5.99869 3.31459 -0.190328 0.402909 0.389412
59 2 -0.338808 8.55486 4.2722 -0.859407 -0.422747 0.092358
63 2 4.65896 8.61907 4.28176 -0.0525788 -0.427304 0.776817
67 2 1.82052 6.50575 2.44724 -0.246303 -0.588665 -0.0126831
71 2 6.92732 6.46119 2.41191 -0.279512 0.439425 0.311457
75 2 2.77875 9.01787 0.0658297 -0.153235 0.629546 0.229688
79 2 7.92169 9.04765 0.0600813 -0.6982 0.290638 0.208147
83 2 2.33732 8.95043 2.67573 0.0555624 0.600304 -0.175432
87 2 7.45429 9.01945 2.66618 0.127183 -0.379147 -0.297783
91 2 1.44724 6.34021 5.00613 -1.18217 0.448946 0.569298
95 2 6.52951 6.3848 5.03015 -0.29146 0.246922 -0.0658129
4 1 0.302402 7.95438 6.2247 0.183976 0.472372 0.0965153
8 1 5.37643 7.96611 6.21687 0.83382 0.338259 -0.850092
12 1 2.53378 5.41392 6.6524 3.33189e-05 -1.16661 -0.126175
16 1 7.58474 5.41469 6.63085 -0.293525 -0.8378 0.203185
20 1 2.09761 7.4915 9.28535 -0.654797 0.436443 0.0808226
24 1 7.15707 7.5076 9.21235 0.263467 0.673482 0.712129
28 1 -0.121719 10.0927 8.80672 0.358808 0.198742 0.564488
32 1 4.96 10.0838 8.75467 0.394057 0.980639 0.906449
36 2 -0.84072 9.51731 6.89309 0.362957 -0.456456 -0.422277
40 2 4.18869 9.47006 6.932 0.000415889 -0.11431 -0.0792205
44 2 3.67679 6.94226 5.90381 0.125942 -0.404307 1.32663
48 2 8.78769 6.91629 5.94089 0.349467 -0.083289 0.297586
52 2 3.26671 6.02982 8.55803 0.0995567 0.0312048 -0.109198
56 2 8.31901 5.99135 8.53958 0.177701 -0.120531 -0.35458
60 2 -1.28921 8.57549 9.43029 -0.151387 -0.474553 0.41698
64 2 3.79253 8.6274 9.58089 0.0022881 -0.103787 -0.0691599
68 2 1.00118 6.50026 7.54851 -0.777877 -0.0611654 1.00084
72 2 5.98293 6.53924 7.63385 0.303814 -0.538633 -0.103935
76 2 1.78463 9.10054 5.27411 0.977374 0.197465 0.182928
80 2 7.00131 9.05515 5.2676 0.0408935 -0.0808315 -0.0873353
84 2 1.41313 8.98918 7.89719 0.521855 -0.0365775 -0.706137
88 2 6.5396 8.98419 7.85689 -0.0550697 0.475949 -0.487967
92 2 0.491951 6.33259 10.2314 -0.255045 0.30959 -0.713499
96 2 5.60401 6.38957 10.1965 -0.0575124 0.619182 0.524695
ITEM: TIMESTEP
40
ITEM: NUMBER OF ATOMS
96
ITEM: BOX BOUNDS xy xz yz pp pp pp
-1.8120934260373218e+00 1.0167920798912188e+01 0.0000000000000000e+00
-6.4178440750112919e-02 1.0344878440750113e+01 -1.7490128102251301e+00
-6.4144134984170265e-02 1.0339348718084171e+01 0.0000000000000000e+00
ITEM: ATOMS id type x y z fx fy fz
1 1 1.12754 2.77638 0.981265 0.545833 -0.275228 -0.395075
5 1 6.27849 2.75369 0.972252 0.418561 -1.15956 0.287493
9 1 3.43173 0.154141 1.53173 -0.665654 0.131235 -0.94599
13 1 8.60295 0.137272 1.43909 -1.83851 -0.339744 0.713896
17 1 2.91751 2.34537 4.06947 0.168543 -0.65359 -0.0673601
21 1 8.05143 2.28446 4.08938 0.304005 0.398376 -1.09344
25 1 0.70897 4.92213 3.57953 0.227528 0.309841 0.376214
29 1 5.87173 4.85291 3.66741 0.217236 0.798815 -0.481208
33 2 -0.120255 4.22485 1.72346 0.949464 -0.243851 0.0993262
37 2 5.11257 4.12029 1.81808 -1.1263 1.2016 -0.107118
41 2 4.556 1.62645 0.725288 0.0980874 0.418948 -0.606461
45 2 9.73084 1.55798 0.634902 0.289908 0.663362 0.123962
49 2 4.18423 0.923024 3.28023 -0.168457 -0.293709 0.519397
53 2 9.23326 0.78319 3.35985 0.243307 0.0289962 -0.541387
57 2 -0.427276 3.44045 4.30386 -0.54945 -0.604423 0.296034
61 2 4.55013 3.49751 4.36749 0.2756 -0.515843 0.815065
65 2 1.74881 1.22365 2.32966 0.243445 0.413556 0.678889
69 2 6.90629 1.23457 2.3555 0.352485 0.30949 0.370023
73 2 2.72203 3.8817 -0.0161607 0.0993186 0.222362 0.983216
77 2 7.85987 3.8372 0.0382397 0.01449 0.619656 0.269699
81 2 2.31789 3.77927 2.60583 -0.490661 -0.0725809 0.0185021
85 2 7.43257 3.83355 2.70006 0.374599 -0.573863 -0.186593
89 2 1.30549 1.17212 4.94901 0.848046 1.15413 0.565705
93 2 6.48354 1.24628 4.96098 -0.314402 -0.89474 0.628663
2 1 0.297511 2.82528 6.19136 -0.231923 -0.193579 -0.228924
6 1 5.31909 2.77753 6.26274 1.55369 -0.806105 -0.356417
10 1 2.45352 0.192774 6.70116 0.826656 -0.782723 -0.743073
14 1 7.67869 0.17211 6.64187 -0.948836 -0.679162 0.254817
18 1 2.0222 2.31907 9.28254 0.357081 0.284784 -0.0684976
22 1 7.21413 2.28476 9.21855 -0.78468 0.543467 -0.11788
26 1 -0.18368 4.93565 8.74009 0.391236 0.302909 0.130603
30 1 4.96469 4.92843 8.85673 0.76835 0.284081 -0.0842059
34 2 -0.924805 4.27668 6.87818 0.0698696 -0.338889 0.0886524
38 2 4.24623 4.2563 6.96752 -0.904627 0.709328 0.207749
42 2 3.76106 1.52883 5.91776 -0.524396 1.05438 -0.746268
46 2 8.8232 1.59721 5.90474 0.807041 0.981667 -0.0368634
50 2 3.28672 0.890919 8.50864 -0.358456 -0.122196 0.0572833
54 2 8.44438 0.828071 8.51863 -0.162608 -0.333551 -0.43023
58 2 -1.30329 3.43606 9.48079 -0.831566 -0.714516 0.564745
62 2 3.76957 3.46852 9.50631 -0.573002 -0.441225 0.560539
66 2 0.974065 1.35699 7.52251 -0.706364 -0.448909 1.30304
70 2 6.0769 1.31536 7.63532 0.2922 -0.250465 -0.525187
74 2 1.87311 3.93009 5.23291 0.165905 -0.570149 0.00828794
78 2 6.9896 3.82988 5.30157 -0.485348 0.210629 -0.363724
82 2 1.41015 3.86424 7.85754 0.361849 -0.556657 -0.537469
86 2 6.54648 3.83634 7.88321 -0.107887 -0.122692 -0.204037
94 2 5.55623 1.16439 10.1551 0.651962 0.569686 0.338765
90 2 0.453177 1.17705 10.1977 0.329737 0.321562 -0.315674
3 1 1.19524 7.89631 0.952829 -0.671892 0.221842 0.665641
7 1 6.26128 7.98668 1.04274 1.00685 0.0496246 0.131929
11 1 3.38522 5.32931 1.53114 1.13486 -0.490012 -0.890508
15 1 8.46673 5.38991 1.45523 -0.49028 -0.255835 0.130586
19 1 2.92345 7.51172 4.08687 0.168095 -0.117711 0.433324
23 1 8.14671 7.52077 4.04208 -1.22547 0.38595 0.199909
27 1 0.793808 10.1147 3.56495 -1.2397 -0.237082 0.812482
31 1 5.86429 10.0987 3.65077 0.19908 0.32139 -0.711464
35 2 -0.0636882 9.30511 1.78704 0.682227 0.375409 -0.0637866
39 2 5.04648 9.42154 1.76894 0.156764 0.102228 0.728798
43 2 4.60927 6.8187 0.747196 -0.935432 -0.487426 -0.0807319
47 2 9.66575 6.80992 0.7182 0.782872 0.262082 -0.400066
51 2 4.17375 6.00336 3.36328 -0.704545 0.352484 -0.157957
55 2 9.31633 6.08216 3.34605 -0.0834712 -0.762241 -0.841439
59 2 -0.455196 8.6212 4.35271 0.72839 0.426049 0.279688
63 2 4.61128 8.62852 4.39181 0.394725 0.496349 -0.490444
67 2 1.83175 6.45395 2.3966 0.0368911 -0.000468488 0.131445
71 2 6.88963 6.47806 2.3972 0.419529 -0.455526 0.345713
75 2 2.73217 9.10226 0.101375 0.0370533 -0.558765 -0.205253
79 2 7.90418 9.11818 0.110683 -0.174327 -0.676818 -1.09308
83 2 2.3303 9.00216 2.75949 0.321119 -0.269043 -1.02311
87 2 7.38682 8.97123 2.64303 0.0157891 0.270067 0.274771
91 2 1.35006 6.39949 5.04936 0.606791 0.179653 -0.497119
95 2 6.50722 6.43417 4.95622 0.073092 -0.501195 0.763355
4 1 0.294939 7.97856 6.23605 0.663585 -0.574502 -0.415472
8 1 5.37854 7.97827 6.19136 0.647696 0.187269 0.374281
12 1 2.54618 5.39806 6.67902 -1.00674 -0.400408 -0.00210797
16 1 7.58485 5.40412 6.63332 0.141003 -0.451873 -0.274366
20 1 2.099 7.50731 9.30637 -0.252193 0.249686 -0.359351
24 1 7.1677 7.52923 9.23412 -0.00683102 0.198728 0.236414
28 1 -0.124363 10.0918 8.8247 0.0569428 0.0990086 0.427492
32 1 4.94604 10.1081 8.78239 0.19417 0.68532 0.263166
36 2 -0.870259 9.43049 6.97328 -0.161228 0.452246 0.344134
40 2 4.17848 9.46802 6.91234 0.423444 -0.1859 0.553939
44 2 3.69947 6.87705 6.01488 -0.11024 0.126799 -0.918315
48 2 8.90996 6.8037 5.97907 -0.788826 0.313624 -0.759329
52 2 3.30706 6.07621 8.52996 -0.113477 -0.0634966 0.0801432
56 2 8.3155 6.00705 8.45969 0.0203065 0.490353 0.819842
60 2 -1.31578 8.55713 9.57189 0.0654191 0.790372 -0.85253
64 2 3.75719 8.69945 9.62494 0.0507076 -0.199263 -0.355154
68 2 0.928142 6.49319 7.61775 0.503761 0.181729 0.101352
72 2 6.03596 6.50825 7.5781 -0.335912 0.086273 0.539979
76 2 1.86038 9.1348 5.29712 -0.0395407 -0.691237 -0.367212
80 2 7.06582 8.99785 5.23893 -0.677785 1.24284 0.311695
84 2 1.55634 9.01326 7.91019 -1.07729 0.303531 -0.0206005
88 2 6.5537 9.0661 7.83594 -0.00914605 -0.558365 0.209839
92 2 0.446568 6.40525 10.1143 0.454233 0.233051 1.28131
96 2 5.62256 6.49622 10.255 -0.353976 -1.09171 -0.739316
ITEM: TIMESTEP
50
ITEM: NUMBER OF ATOMS
96
ITEM: BOX BOUNDS xy xz yz pp pp pp
-1.8904458086833704e+00 1.0226309739049384e+01 0.0000000000000000e+00