Created from lammps.lmp
72           atoms
1            atom types
  0.000000000000  10.863786000000 xlo xhi
  0.000000000000  10.863786000000 ylo yhi
  0.000000000000   7.242524000000 zlo zhi
  0.000000000000   0.000000000000   0.000000000000 xy xz yz

Masses

1             63.546000000000 # 29

Atoms # atomic

1            1             -0.001560102698  -0.000850769008   0.002936129046
2            1              1.809318438689   1.814815130031  -0.002666063140
3            1              1.806555847602  -0.002250202928   1.811103808456
4            1              0.003238826827   1.807674232462   1.813888445710
5            1             -0.003422356756   0.001339249787   3.616463266202
6            1              1.807809727564   1.808150805319   3.619578515722
7            1              1.813905229073  -0.001819961890   5.428258353523
8            1              0.002258705988   1.811787244432   5.428027845758
9            1             -0.001577220145   3.618416546182   0.000600778159
10           1              1.806186142683   5.427987023580   0.003969776130
11           1              1.815006311243   3.621568708511   1.814763673936
12           1              0.002288127015   5.435329093504   1.811917658327
13           1              0.000792715211   3.622230219746   3.625185116570
14           1              1.808655873278   5.429853283609   3.624087426118
15           1              1.814588372822   3.621969529517   5.429638134380
16           1             -0.003843806383   5.427440464307   5.431875091086
17           1             -0.000684485892   7.246470665523  -0.002175335327
18           1              1.808176501265   9.050107387315  -0.001553840556
19           1              1.812445324278   7.241859142586   1.814400377028
20           1             -0.002509815545   9.052459455719   1.812787221010
21           1             -0.001847805251   7.241131936945   3.623416561334
22           1              1.815025494320   9.054116694176   3.619936653514
23           1              1.806003142586   7.240925972896   5.435149260273
24           1             -0.001184175134   9.055365851185   5.428451677796
25           1              3.623238396302   0.004367975959   0.001678504408
26           1              5.435579417886   1.807396306522  -0.004771440961
27           1              5.435266716027  -0.004296712579   1.807373404148
28           1              3.617377396565   1.812775014840   1.813235121504
29           1              3.622551129307  -0.000262959246   3.621835777199
30           1              5.436242800014   1.813035546121   3.619417535601
31           1              5.435338391215  -0.002529711727   5.428189614728
32           1              3.622289298901   1.806736972455   5.433530513466
33           1              3.617848837894   3.616464006019   0.004090186723
34           1              5.432608030409   5.430028437552   0.002574143551
35           1              5.434154247211   3.620753313973   1.806451800532
36           1              3.620555698041   5.432633806550   1.813216947132
37           1              3.623276862753   3.625099542218   3.618884509795
38           1              5.428852801685   5.427220115780   3.624741804535
39           1              5.434701737048   3.624253880485   5.432264682093
40           1              3.624519168132   5.430799442987   5.434508505982
41           1              3.625042181222   7.245582700927   0.003947241257
42           1              5.433944082420   9.053297164489   0.004397844819
43           1              5.428966711906   7.243574257707   1.812361232318
44           1              3.622756079781   9.054930903009   1.814974402339
45           1              3.624145471898   7.239495254280   3.623557810576
46           1              5.429270807883   9.056223867672   3.618875952167
47           1              5.428155653992   7.239206242653   5.435304396852
48           1              3.624991653114   9.053993249477   5.432721703136
49           1              7.239193214672   0.000864781996  -0.003937866068
50           1              9.052775938095   1.809695374777   0.002900009075
51           1              9.051632874115   0.002135987463   1.806706896086
52           1              7.238373980098   1.810922670219   1.809293789961
53           1              7.244530179360   0.002165568816   3.619677887516
54           1              9.052448307765   1.810406565776   3.621555841314
55           1              9.048525612446  -0.003983602601   5.430197096528
56           1              7.242775468878   1.814279755610   5.435372008192
57           1              7.245593108360   3.618016965405   0.001102727346
58           1              9.057297878738   5.430770357364   0.002067782899
59           1              9.048512960401   3.618330631370   1.807874215584
60           1              7.239710857718   5.433931519305   1.807722654427
61           1              7.238611528901   3.624099815142   3.625616407023
62           1              9.055196305537   5.431494235251   3.619671123137
63           1              9.056098285219   3.624907391899   5.432974451601
64           1              7.240867997175   5.434638480555   5.427718024025
65           1              7.246054557956   7.242053747769  -0.003314338763
66           1              9.054072975260   9.053904349306   0.003238007843
67           1              9.052247359615   7.246065202295   1.809944608434
68           1              7.239069946670   9.056478864369   1.813009065532
69           1              7.246741717833   7.239628293933   3.620050884956
70           1              9.056774218723   9.048847447958   3.620945996454
71           1              9.051968824354   7.244808273175   5.434466205951
72           1              7.243305747581   9.056498665101   5.435429887614
